data_59-ICSD
#©2015 by Fachinformationszentrum Karlsruhe, and the U.S. Secretary of 
#Commerce on behalf of the United States.  All rights reserved.
_database_code_ICSD                59
_audit_creation_date               1980/01/01
_audit_update_record               2014/08/01
_chemical_name_systematic          'Gallium Sulfide (1/1) - Beta'
_chemical_formula_structural       'Ga S'
_chemical_formula_sum              'Ga1 S1'
_publ_section_title
;
Refinement of the 2h (GaS)-beta-type
;
loop_
_citation_id
_citation_journal_abbrev
_citation_year
_citation_journal_volume
_citation_page_first
_citation_page_last
_citation_journal_id_ASTM
primary 'Acta Crystallographica B (24,1968-38,1982)' 1976 32 983 984 ACBCAR
_publ_author_name                  'Kuhn, A.;Chevy, A.;Chevalier, R.'
_cell_length_a                     3.587(3)
_cell_length_b                     3.587(3)
_cell_length_c                     15.492(7)
_cell_angle_alpha                  90.
_cell_angle_beta                   90.
_cell_angle_gamma                  120.
_cell_volume                       172.62
_cell_formula_units_Z              4
_symmetry_space_group_name_H-M     'P 63/m m c'
_symmetry_Int_Tables_number        194
_refine_ls_R_factor_all            0.089
loop_
_symmetry_equiv_pos_site_id
_symmetry_equiv_pos_as_xyz
  1	'x, x-y, -z+1/2'
  2	'-x+y, y, -z+1/2'
  3	'-y, -x, -z+1/2'
  4	'-x+y, -x, -z+1/2'
  5	'-y, x-y, -z+1/2'
  6	'x, y, -z+1/2'
  7	'-x, -x+y, z+1/2'
  8	'x-y, -y, z+1/2'
  9	'y, x, z+1/2'
 10	'x-y, x, z+1/2'
 11	'y, -x+y, z+1/2'
 12	'-x, -y, z+1/2'
 13	'-x, -x+y, -z'
 14	'x-y, -y, -z'
 15	'y, x, -z'
 16	'x-y, x, -z'
 17	'y, -x+y, -z'
 18	'-x, -y, -z'
 19	'x, x-y, z'
 20	'-x+y, y, z'
 21	'-y, -x, z'
 22	'-x+y, -x, z'
 23	'-y, x-y, z'
 24	'x, y, z'
loop_
_atom_type_symbol
_atom_type_oxidation_number
Ga2+	2
S2-	-2
loop_
_atom_site_label
_atom_site_type_symbol
_atom_site_symmetry_multiplicity
_atom_site_Wyckoff_symbol
_atom_site_fract_x
_atom_site_fract_y
_atom_site_fract_z
_atom_site_occupancy
_atom_site_attached_hydrogens
Ga1 Ga2+ 4 f 0.3333 0.6667 0.1710(1) 1. 0 
S1 S2- 4 f 0.3333 0.6667 0.6016(3) 1. 0 

#End of data_59-ICSD


data_488-ICSD
#©2015 by Fachinformationszentrum Karlsruhe, and the U.S. Secretary of 
#Commerce on behalf of the United States.  All rights reserved.
_database_code_ICSD                488
_audit_creation_date               1980/01/01
_audit_update_record               2012/02/01
_chemical_name_systematic          'Gallium Sulfide - Alpha'
_chemical_formula_structural       'Ga2 S3'
_chemical_formula_sum              'Ga2 S3'
_publ_section_title
;
Preparation et structure de Ga2 S3 alpha type wurtzite lacunaire
;
loop_
_citation_id
_citation_journal_abbrev
_citation_year
_citation_journal_volume
_citation_page_first
_citation_page_last
_citation_journal_id_ASTM
primary 'Materials Research Bulletin' 1976 11 285 292 MRBUAC
_publ_author_name
;
Collin, G.;Flahaut, J.;Guittard, M.;Loireau-Lozach, A.
;
_cell_length_a                     11.094(2)
_cell_length_b                     9.578(2)
_cell_length_c                     6.395(1)
_cell_angle_alpha                  90.
_cell_angle_beta                   90.
_cell_angle_gamma                  141.15(1)
_cell_volume                       426.25
_cell_formula_units_Z              4
_symmetry_space_group_name_H-M     'B 1 1 b'
_symmetry_Int_Tables_number        9
_refine_ls_R_factor_all            0.058
loop_
_symmetry_equiv_pos_site_id
_symmetry_equiv_pos_as_xyz
  1	'x, y+1/2, -z'
  2	'x, y, z'
  3	'x+1/2, y+1/2, -z+1/2'
  4	'x+1/2, y, z+1/2'
loop_
_atom_type_symbol
_atom_type_oxidation_number
Ga3+	3
S2-	-2
loop_
_atom_site_label
_atom_site_type_symbol
_atom_site_symmetry_multiplicity
_atom_site_Wyckoff_symbol
_atom_site_fract_x
_atom_site_fract_y
_atom_site_fract_z
_atom_site_occupancy
_atom_site_attached_hydrogens
Ga1 Ga3+ 4 a 0.3333 0.5 0.3176(3) 1. 0 
Ga2 Ga3+ 4 a 0.1654(3) -.0097(4) 0.1525(3) 1. 0 
S1 S2- 4 a 0.0902(7) 0.1152(8) 0.3427(6) 1. 0 
S2 S2- 4 a 0.9175(6) 0.6061(8) 0.1659(6) 1. 0 
S3 S2- 4 a 0.2633(8) 0.6308(10) 0.1644(7) 1. 0 

loop_
_atom_site_aniso_label
_atom_site_aniso_type_symbol
_atom_site_aniso_B_11
_atom_site_aniso_B_22
_atom_site_aniso_B_33
_atom_site_aniso_B_12
_atom_site_aniso_B_13
_atom_site_aniso_B_23
Ga1 Ga3+ 0.13(3) 0.12(4) 0.11(3) 0.11(3) -.03(2) -.03(3)
Ga2 Ga3+ 0.12(3) 0.11(4) 0.11(3) 0.10(3) -.02(2) -.03(2)
S1 S2- 0.12(4) 0.11(5) 0.11(4) 0.10(4) -.03(3) -.03(4)
S2 S2- 0.12(4) 0.12(5) 0.10(4) 0.09(4) 0.02(3) -.02(3)
S3 S2- 0.16(5) 0.15(6) 0.11(4) 0.14(4) 0.05(3) -.05(3)
#End of data_488-ICSD


data_25568-ICSD
#©2015 by Fachinformationszentrum Karlsruhe, and the U.S. Secretary of 
#Commerce on behalf of the United States.  All rights reserved.
_database_code_ICSD                25568
_audit_creation_date               1980/01/01
_audit_update_record               2009/02/01
_chemical_name_systematic          'Gallium Sulfide (1.33/2) - Beta'
_chemical_formula_structural       'Ga1.33 S2'
_chemical_formula_sum              'Ga1.33 S2'
_publ_section_title
;
Ueber die Kristallstrukturen von Ga2 S3, Ga2 Se3 und Ga2 Te3
;
loop_
_citation_id
_citation_journal_abbrev
_citation_year
_citation_journal_volume
_citation_page_first
_citation_page_last
_citation_journal_id_ASTM
primary 'Zeitschrift fuer Anorganische und Allgemeine Chemie (1950) (DE)'
 1949 259 135 142 ZAACAB
_publ_author_name                  'Hahn, H.;Klingler, W.'
_cell_length_a                     3.685(5)
_cell_length_b                     3.685(5)
_cell_length_c                     6.028(6)
_cell_angle_alpha                  90.
_cell_angle_beta                   90.
_cell_angle_gamma                  120.
_cell_volume                       70.89
_cell_formula_units_Z              1
_symmetry_space_group_name_H-M     'P 63 m c'
_symmetry_Int_Tables_number        186
loop_
_symmetry_equiv_pos_site_id
_symmetry_equiv_pos_as_xyz
  1	'-x, -x+y, z+1/2'
  2	'x-y, -y, z+1/2'
  3	'y, x, z+1/2'
  4	'x-y, x, z+1/2'
  5	'y, -x+y, z+1/2'
  6	'-x, -y, z+1/2'
  7	'x, x-y, z'
  8	'-x+y, y, z'
  9	'-y, -x, z'
 10	'-x+y, -x, z'
 11	'-y, x-y, z'
 12	'x, y, z'
loop_
_atom_type_symbol
_atom_type_oxidation_number
Ga3+	3
S2-	-2
loop_
_atom_site_label
_atom_site_type_symbol
_atom_site_symmetry_multiplicity
_atom_site_Wyckoff_symbol
_atom_site_fract_x
_atom_site_fract_y
_atom_site_fract_z
_atom_site_occupancy
_atom_site_attached_hydrogens
Ga1 Ga3+ 2 b 0.3333 0.6666 0 0.665 0 
S1 S2- 2 b 0.3333 0.6666 0.375 1. 0 

#End of data_25568-ICSD


data_25660-ICSD
#©2015 by Fachinformationszentrum Karlsruhe, and the U.S. Secretary of 
#Commerce on behalf of the United States.  All rights reserved.
_database_code_ICSD                25660
_audit_creation_date               1980/01/01
_audit_update_record               2009/08/01
_chemical_name_systematic          'Gallium(II) Sulfide'
_chemical_formula_structural       'Ga S'
_chemical_formula_sum              'Ga1 S1'
_publ_section_title
;
Ueber die Kristallstruktur des Ga S
;
loop_
_citation_id
_citation_journal_abbrev
_citation_year
_citation_journal_volume
_citation_page_first
_citation_page_last
_citation_journal_id_ASTM
primary 'Zeitschrift fuer Anorganische und Allgemeine Chemie (1950) (DE)'
 1955 278 340 348 ZAACAB
_publ_author_name                  'Hahn, H.;Frank, G.'
_cell_length_a                     3.585(5)
_cell_length_b                     3.585(5)
_cell_length_c                     15.50(1)
_cell_angle_alpha                  90.
_cell_angle_beta                   90.
_cell_angle_gamma                  120.
_cell_volume                       172.52
_cell_formula_units_Z              4
_symmetry_space_group_name_H-M     'P 63/m m c'
_symmetry_Int_Tables_number        194
loop_
_symmetry_equiv_pos_site_id
_symmetry_equiv_pos_as_xyz
  1	'x, x-y, -z+1/2'
  2	'-x+y, y, -z+1/2'
  3	'-y, -x, -z+1/2'
  4	'-x+y, -x, -z+1/2'
  5	'-y, x-y, -z+1/2'
  6	'x, y, -z+1/2'
  7	'-x, -x+y, z+1/2'
  8	'x-y, -y, z+1/2'
  9	'y, x, z+1/2'
 10	'x-y, x, z+1/2'
 11	'y, -x+y, z+1/2'
 12	'-x, -y, z+1/2'
 13	'-x, -x+y, -z'
 14	'x-y, -y, -z'
 15	'y, x, -z'
 16	'x-y, x, -z'
 17	'y, -x+y, -z'
 18	'-x, -y, -z'
 19	'x, x-y, z'
 20	'-x+y, y, z'
 21	'-y, -x, z'
 22	'-x+y, -x, z'
 23	'-y, x-y, z'
 24	'x, y, z'
loop_
_atom_type_symbol
_atom_type_oxidation_number
Ga2+	2
S2-	-2
loop_
_atom_site_label
_atom_site_type_symbol
_atom_site_symmetry_multiplicity
_atom_site_Wyckoff_symbol
_atom_site_fract_x
_atom_site_fract_y
_atom_site_fract_z
_atom_site_occupancy
_atom_site_attached_hydrogens
Ga1 Ga2+ 4 f 0.3333 0.6667 0.17 1. 0 
S1 S2- 4 f 0.3333 0.6667 0.6 1. 0 

#End of data_25660-ICSD


data_201344-ICSD
#©2015 by Fachinformationszentrum Karlsruhe, and the U.S. Secretary of 
#Commerce on behalf of the United States.  All rights reserved.
_database_code_ICSD                201344
_audit_creation_date               1982/12/31
_chemical_name_systematic          'Gallium(II) Sulfide - Beta'
_chemical_formula_structural       'Ga S'
_chemical_formula_sum              'Ga1 S1'
_publ_section_title                'Charge-density analysis of Ga S'
loop_
_citation_id
_citation_journal_abbrev
_citation_year
_citation_journal_volume
_citation_page_first
_citation_page_last
_citation_journal_id_ASTM
primary 'Physical Review, Serie 3. B - Solid State (1,1970-17,1977)'
 1982 25 4081 4088 PLRBAQ
_publ_author_name
;
Kuhn, A.;Bourdon, A.;Rigoult, J.;Rimsky, A.
;
_cell_length_a                     3.592(1)
_cell_length_b                     3.592(1)
_cell_length_c                     15.465(3)
_cell_angle_alpha                  90.
_cell_angle_beta                   90.
_cell_angle_gamma                  120.
_cell_volume                       172.8
_cell_formula_units_Z              4
_symmetry_space_group_name_H-M     'P 63/m m c'
_symmetry_Int_Tables_number        194
_refine_ls_R_factor_all            0.019
loop_
_symmetry_equiv_pos_site_id
_symmetry_equiv_pos_as_xyz
  1	'x, x-y, -z+1/2'
  2	'-x+y, y, -z+1/2'
  3	'-y, -x, -z+1/2'
  4	'-x+y, -x, -z+1/2'
  5	'-y, x-y, -z+1/2'
  6	'x, y, -z+1/2'
  7	'-x, -x+y, z+1/2'
  8	'x-y, -y, z+1/2'
  9	'y, x, z+1/2'
 10	'x-y, x, z+1/2'
 11	'y, -x+y, z+1/2'
 12	'-x, -y, z+1/2'
 13	'-x, -x+y, -z'
 14	'x-y, -y, -z'
 15	'y, x, -z'
 16	'x-y, x, -z'
 17	'y, -x+y, -z'
 18	'-x, -y, -z'
 19	'x, x-y, z'
 20	'-x+y, y, z'
 21	'-y, -x, z'
 22	'-x+y, -x, z'
 23	'-y, x-y, z'
 24	'x, y, z'
loop_
_atom_type_symbol
_atom_type_oxidation_number
Ga2+	2
S2-	-2
loop_
_atom_site_label
_atom_site_type_symbol
_atom_site_symmetry_multiplicity
_atom_site_Wyckoff_symbol
_atom_site_fract_x
_atom_site_fract_y
_atom_site_fract_z
_atom_site_occupancy
_atom_site_attached_hydrogens
Ga1 Ga2+ 4 f 0.3333 0.6667 0.17082(1) 1. 0 
S1 S2- 4 f 0.3333 0.6667 0.60191(2) 1. 0 

loop_
_atom_site_aniso_label
_atom_site_aniso_type_symbol
_atom_site_aniso_U_11
_atom_site_aniso_U_22
_atom_site_aniso_U_33
_atom_site_aniso_U_12
_atom_site_aniso_U_13
_atom_site_aniso_U_23
Ga1 Ga2+ 0.00923(2) 0.00923(2) 0.01210(4) 0.00461 0 0
S1 S2- 0.00876(4) 0.00876(4) 0.01244(7) 0.00438 0 0
#End of data_201344-ICSD


data_201345-ICSD
#©2015 by Fachinformationszentrum Karlsruhe, and the U.S. Secretary of 
#Commerce on behalf of the United States.  All rights reserved.
_database_code_ICSD                201345
_audit_creation_date               1982/12/31
_chemical_name_systematic          'Gallium(II) Sulfide - Beta'
_chemical_formula_structural       'Ga S'
_chemical_formula_sum              'Ga1 S1'
_publ_section_title                'Charge-density analysis of Ga S'
loop_
_citation_id
_citation_journal_abbrev
_citation_year
_citation_journal_volume
_citation_page_first
_citation_page_last
_citation_journal_id_ASTM
primary 'Physical Review, Serie 3. B - Solid State (1,1970-17,1977)'
 1982 25 4081 4088 PLRBAQ
_publ_author_name
;
Kuhn, A.;Bourdon, A.;Rigoult, J.;Rimsky, A.
;
_cell_length_a                     3.592(1)
_cell_length_b                     3.592(1)
_cell_length_c                     15.465(3)
_cell_angle_alpha                  90.
_cell_angle_beta                   90.
_cell_angle_gamma                  120.
_cell_volume                       172.8
_cell_formula_units_Z              4
_symmetry_space_group_name_H-M     'P 63/m m c'
_symmetry_Int_Tables_number        194
_refine_ls_R_factor_all            0.038
loop_
_symmetry_equiv_pos_site_id
_symmetry_equiv_pos_as_xyz
  1	'x, x-y, -z+1/2'
  2	'-x+y, y, -z+1/2'
  3	'-y, -x, -z+1/2'
  4	'-x+y, -x, -z+1/2'
  5	'-y, x-y, -z+1/2'
  6	'x, y, -z+1/2'
  7	'-x, -x+y, z+1/2'
  8	'x-y, -y, z+1/2'
  9	'y, x, z+1/2'
 10	'x-y, x, z+1/2'
 11	'y, -x+y, z+1/2'
 12	'-x, -y, z+1/2'
 13	'-x, -x+y, -z'
 14	'x-y, -y, -z'
 15	'y, x, -z'
 16	'x-y, x, -z'
 17	'y, -x+y, -z'
 18	'-x, -y, -z'
 19	'x, x-y, z'
 20	'-x+y, y, z'
 21	'-y, -x, z'
 22	'-x+y, -x, z'
 23	'-y, x-y, z'
 24	'x, y, z'
loop_
_atom_type_symbol
_atom_type_oxidation_number
Ga2+	2
S2-	-2
loop_
_atom_site_label
_atom_site_type_symbol
_atom_site_symmetry_multiplicity
_atom_site_Wyckoff_symbol
_atom_site_fract_x
_atom_site_fract_y
_atom_site_fract_z
_atom_site_occupancy
_atom_site_attached_hydrogens
Ga1 Ga2+ 4 f 0.3333 0.6667 0.17081(1) 1. 0 
S1 S2- 4 f 0.3333 0.6667 0.60190(2) 1. 0 

loop_
_atom_site_aniso_label
_atom_site_aniso_type_symbol
_atom_site_aniso_U_11
_atom_site_aniso_U_22
_atom_site_aniso_U_33
_atom_site_aniso_U_12
_atom_site_aniso_U_13
_atom_site_aniso_U_23
Ga1 Ga2+ 0.00895(3) 0.00895(3) 0.01171(4) 0.00447 0 0
S1 S2- 0.00846(3) 0.00846(3) 0.01201(7) 0.00423 0 0
#End of data_201345-ICSD


data_202408-ICSD
#©2015 by Fachinformationszentrum Karlsruhe, and the U.S. Secretary of 
#Commerce on behalf of the United States.  All rights reserved.
_database_code_ICSD                202408
_audit_creation_date               1988/05/17
_audit_update_record               1991/11/23
_chemical_name_systematic          'Gallium Sulfide - Alpha'
_chemical_formula_structural       'Ga2 S3'
_chemical_formula_sum              'Ga2 S3'
_publ_section_title
;
Determination des structures des formes alpha and beta de Ga2 S3
;
loop_
_citation_id
_citation_journal_abbrev
_citation_year
_citation_journal_volume
_citation_page_first
_citation_page_last
_citation_journal_id_ASTM
primary 'Materials Research Bulletin' 1987 22 1549 1554 MRBUAC
_publ_author_name
;
Tomas, A.;Pardo, M.P.;Guittard, M.;Guymont, M.;Famery, R.
;
_cell_length_a                     6.385(1)
_cell_length_b                     6.385(1)
_cell_length_c                     18.040(1)
_cell_angle_alpha                  90.
_cell_angle_beta                   90.
_cell_angle_gamma                  120.
_cell_volume                       636.93
_cell_formula_units_Z              6
_symmetry_space_group_name_H-M     'P 61'
_symmetry_Int_Tables_number        169
_refine_ls_R_factor_all            0.049
loop_
_symmetry_equiv_pos_site_id
_symmetry_equiv_pos_as_xyz
  1	'x-y, x, z+1/6'
  2	'y, -x+y, z+5/6'
  3	'-x, -y, z+1/2'
  4	'-x+y, -x, z+2/3'
  5	'-y, x-y, z+1/3'
  6	'x, y, z'
loop_
_atom_type_symbol
_atom_type_oxidation_number
Ga3+	3
S2-	-2
loop_
_atom_site_label
_atom_site_type_symbol
_atom_site_symmetry_multiplicity
_atom_site_Wyckoff_symbol
_atom_site_fract_x
_atom_site_fract_y
_atom_site_fract_z
_atom_site_occupancy
_atom_site_attached_hydrogens
_atom_site_B_iso_or_equiv
Ga1 Ga3+ 6 a -.008(1) 0.339(1) 0.1214(1) 1. 0 0.41(5) 
Ga2 Ga3+ 6 a 0.643(1) 0.655(2) 0.1247(1) 0.67(2) 0 0.58(5) 
Ga3 Ga3+ 6 a 0.303(2) -.004(4) 0.1276(4) 0.35(1) 0 1.35(13) 
S1 S2- 6 a 0.337(5) -.007(6) 0 1. 0 0.9(1) 
S2 S2- 6 a 0.671(7) 0.659(7) -.0028(3) 1. 0 0.99(10) 
S3 S2- 6 a 0.008(4) 0.325(5) -.0055(3) 1. 0 0.83(10) 

#End of data_202408-ICSD


data_202409-ICSD
#©2015 by Fachinformationszentrum Karlsruhe, and the U.S. Secretary of 
#Commerce on behalf of the United States.  All rights reserved.
_database_code_ICSD                202409
_audit_creation_date               1988/05/17
_audit_update_record               2006/04/01
_chemical_name_systematic          'Gallium Sulfide (1.33/2) - Beta'
_chemical_formula_structural       '(Ga2 S3)0.667'
_chemical_formula_sum              'Ga1.334 S2.001'
_publ_section_title
;
Determination des structures des formes alpha and beta de Ga2 S3
;
loop_
_citation_id
_citation_journal_abbrev
_citation_year
_citation_journal_volume
_citation_page_first
_citation_page_last
_citation_journal_id_ASTM
primary 'Materials Research Bulletin' 1987 22 1549 1554 MRBUAC
_publ_author_name
;
Tomas, A.;Pardo, M.P.;Guittard, M.;Guymont, M.;Famery, R.
;
_cell_length_a                     3.682(1)
_cell_length_b                     3.682(1)
_cell_length_c                     6.031(1)
_cell_angle_alpha                  90.
_cell_angle_beta                   90.
_cell_angle_gamma                  120.
_cell_volume                       70.81
_cell_formula_units_Z              1
_symmetry_space_group_name_H-M     'P 63 m c'
_symmetry_Int_Tables_number        186
_refine_ls_R_factor_all            0.049
loop_
_symmetry_equiv_pos_site_id
_symmetry_equiv_pos_as_xyz
  1	'-x, -x+y, z+1/2'
  2	'x-y, -y, z+1/2'
  3	'y, x, z+1/2'
  4	'x-y, x, z+1/2'
  5	'y, -x+y, z+1/2'
  6	'-x, -y, z+1/2'
  7	'x, x-y, z'
  8	'-x+y, y, z'
  9	'-y, -x, z'
 10	'-x+y, -x, z'
 11	'-y, x-y, z'
 12	'x, y, z'
loop_
_atom_type_symbol
_atom_type_oxidation_number
Ga3+	3
S2-	-2
loop_
_atom_site_label
_atom_site_type_symbol
_atom_site_symmetry_multiplicity
_atom_site_Wyckoff_symbol
_atom_site_fract_x
_atom_site_fract_y
_atom_site_fract_z
_atom_site_occupancy
_atom_site_attached_hydrogens
_atom_site_B_iso_or_equiv
Ga1 Ga3+ 2 b 0.3333 0.6667 0 .667 0 1.15(4) 
S1 S2- 2 b 0.3333 0.6667 0.376(1) 1. 0 1.06(10) 

#End of data_202409-ICSD


data_40824-ICSD
#©2015 by Fachinformationszentrum Karlsruhe, and the U.S. Secretary of 
#Commerce on behalf of the United States.  All rights reserved.
_database_code_ICSD                40824
_audit_creation_date               2000/07/15
_audit_update_record               2007/08/01
_chemical_name_systematic
;
Gallium(II) Sulfide - Rhombohedral 3r
;
_chemical_formula_structural       'Ga S'
_chemical_formula_sum              'Ga1 S1'
_publ_section_title
;
Sur une nouvelle form de Ga S, rhomboedrique 3R metastable formation 
et etude structurale
;
loop_
_citation_id
_citation_journal_abbrev
_citation_year
_citation_journal_volume
_citation_page_first
_citation_page_last
_citation_journal_id_ASTM
primary 'Materials Research Bulletin' 1987 22 323 329 MRBUAC
_publ_author_name                  'Pardo, M.P.;Flahaut, J.'
_cell_length_a                     3.605
_cell_length_b                     3.605
_cell_length_c                     23.43
_cell_angle_alpha                  90.
_cell_angle_beta                   90.
_cell_angle_gamma                  120.
_cell_volume                       263.7
_cell_formula_units_Z              6
_symmetry_space_group_name_H-M     'R -3 m H'
_symmetry_Int_Tables_number        166
_refine_ls_R_factor_all            0.058
loop_
_symmetry_equiv_pos_site_id
_symmetry_equiv_pos_as_xyz
  1	'x-y, -y, -z'
  2	'-x, -x+y, -z'
  3	'y, x, -z'
  4	'x-y, x, -z'
  5	'y, -x+y, -z'
  6	'-x, -y, -z'
  7	'-x+y, y, z'
  8	'x, x-y, z'
  9	'-y, -x, z'
 10	'-x+y, -x, z'
 11	'-y, x-y, z'
 12	'x, y, z'
 13	'x-y+2/3, -y+1/3, -z+1/3'
 14	'x-y+1/3, -y+2/3, -z+2/3'
 15	'-x+2/3, -x+y+1/3, -z+1/3'
 16	'-x+1/3, -x+y+2/3, -z+2/3'
 17	'y+2/3, x+1/3, -z+1/3'
 18	'y+1/3, x+2/3, -z+2/3'
 19	'x-y+2/3, x+1/3, -z+1/3'
 20	'x-y+1/3, x+2/3, -z+2/3'
 21	'y+2/3, -x+y+1/3, -z+1/3'
 22	'y+1/3, -x+y+2/3, -z+2/3'
 23	'-x+2/3, -y+1/3, -z+1/3'
 24	'-x+1/3, -y+2/3, -z+2/3'
 25	'-x+y+2/3, y+1/3, z+1/3'
 26	'-x+y+1/3, y+2/3, z+2/3'
 27	'x+2/3, x-y+1/3, z+1/3'
 28	'x+1/3, x-y+2/3, z+2/3'
 29	'-y+2/3, -x+1/3, z+1/3'
 30	'-y+1/3, -x+2/3, z+2/3'
 31	'-x+y+2/3, -x+1/3, z+1/3'
 32	'-x+y+1/3, -x+2/3, z+2/3'
 33	'-y+2/3, x-y+1/3, z+1/3'
 34	'-y+1/3, x-y+2/3, z+2/3'
 35	'x+2/3, y+1/3, z+1/3'
 36	'x+1/3, y+2/3, z+2/3'
loop_
_atom_type_symbol
_atom_type_oxidation_number
Ga2+	2
S2-	-2
loop_
_atom_site_label
_atom_site_type_symbol
_atom_site_symmetry_multiplicity
_atom_site_Wyckoff_symbol
_atom_site_fract_x
_atom_site_fract_y
_atom_site_fract_z
_atom_site_occupancy
_atom_site_attached_hydrogens
Ga1 Ga2+ 6 c 0 0 0.0527 1. 0 
S1 S2- 6 c 0 0 0.7656 1. 0 

#End of data_40824-ICSD


data_76753-ICSD
#©2015 by Fachinformationszentrum Karlsruhe, and the U.S. Secretary of 
#Commerce on behalf of the United States.  All rights reserved.
_database_code_ICSD                76753
_audit_creation_date               2001/07/16
_chemical_name_systematic          'Gallium Sulfide (1.33/2) - Alpha'
_chemical_formula_structural       'Ga1.33 S2'
_chemical_formula_sum              'Ga1.33 S2'
_publ_section_title
;
Ueber die Kristallstrukturen von Ga2 S3, Ga2 Se3 und Ga2 Te3
;
loop_
_citation_id
_citation_journal_abbrev
_citation_year
_citation_journal_volume
_citation_page_first
_citation_page_last
_citation_journal_id_ASTM
primary 'Zeitschrift fuer Anorganische und Allgemeine Chemie (1950) (DE)'
 1949 259 135 142 ZAACAB
_publ_author_name                  'Hahn, H.;Klingler, W.'
_cell_length_a                     5.181(4)
_cell_length_b                     5.181
_cell_length_c                     5.181
_cell_angle_alpha                  90.
_cell_angle_beta                   90.
_cell_angle_gamma                  90.
_cell_volume                       139.07
_cell_formula_units_Z              2
_symmetry_space_group_name_H-M     'F -4 3 m'
_symmetry_Int_Tables_number        216
loop_
_symmetry_equiv_pos_site_id
_symmetry_equiv_pos_as_xyz
  1	'-z, -y, x'
  2	'-y, -x, z'
  3	'-x, -z, y'
  4	'-z, -x, y'
  5	'-y, -z, x'
  6	'-x, -y, z'
  7	'-z, y, -x'
  8	'-y, x, -z'
  9	'-x, z, -y'
 10	'-z, x, -y'
 11	'-y, z, -x'
 12	'-x, y, -z'
 13	'z, -y, -x'
 14	'y, -x, -z'
 15	'x, -z, -y'
 16	'z, -x, -y'
 17	'y, -z, -x'
 18	'x, -y, -z'
 19	'z, y, x'
 20	'y, x, z'
 21	'x, z, y'
 22	'z, x, y'
 23	'y, z, x'
 24	'x, y, z'
 25	'-z, -y+1/2, x+1/2'
 26	'-z+1/2, -y, x+1/2'
 27	'-z+1/2, -y+1/2, x'
 28	'-y, -x+1/2, z+1/2'
 29	'-y+1/2, -x, z+1/2'
 30	'-y+1/2, -x+1/2, z'
 31	'-x, -z+1/2, y+1/2'
 32	'-x+1/2, -z, y+1/2'
 33	'-x+1/2, -z+1/2, y'
 34	'-z, -x+1/2, y+1/2'
 35	'-z+1/2, -x, y+1/2'
 36	'-z+1/2, -x+1/2, y'
 37	'-y, -z+1/2, x+1/2'
 38	'-y+1/2, -z, x+1/2'
 39	'-y+1/2, -z+1/2, x'
 40	'-x, -y+1/2, z+1/2'
 41	'-x+1/2, -y, z+1/2'
 42	'-x+1/2, -y+1/2, z'
 43	'-z, y+1/2, -x+1/2'
 44	'-z+1/2, y, -x+1/2'
 45	'-z+1/2, y+1/2, -x'
 46	'-y, x+1/2, -z+1/2'
 47	'-y+1/2, x, -z+1/2'
 48	'-y+1/2, x+1/2, -z'
 49	'-x, z+1/2, -y+1/2'
 50	'-x+1/2, z, -y+1/2'
 51	'-x+1/2, z+1/2, -y'
 52	'-z, x+1/2, -y+1/2'
 53	'-z+1/2, x, -y+1/2'
 54	'-z+1/2, x+1/2, -y'
 55	'-y, z+1/2, -x+1/2'
 56	'-y+1/2, z, -x+1/2'
 57	'-y+1/2, z+1/2, -x'
 58	'-x, y+1/2, -z+1/2'
 59	'-x+1/2, y, -z+1/2'
 60	'-x+1/2, y+1/2, -z'
 61	'z, -y+1/2, -x+1/2'
 62	'z+1/2, -y, -x+1/2'
 63	'z+1/2, -y+1/2, -x'
 64	'y, -x+1/2, -z+1/2'
 65	'y+1/2, -x, -z+1/2'
 66	'y+1/2, -x+1/2, -z'
 67	'x, -z+1/2, -y+1/2'
 68	'x+1/2, -z, -y+1/2'
 69	'x+1/2, -z+1/2, -y'
 70	'z, -x+1/2, -y+1/2'
 71	'z+1/2, -x, -y+1/2'
 72	'z+1/2, -x+1/2, -y'
 73	'y, -z+1/2, -x+1/2'
 74	'y+1/2, -z, -x+1/2'
 75	'y+1/2, -z+1/2, -x'
 76	'x, -y+1/2, -z+1/2'
 77	'x+1/2, -y, -z+1/2'
 78	'x+1/2, -y+1/2, -z'
 79	'z, y+1/2, x+1/2'
 80	'z+1/2, y, x+1/2'
 81	'z+1/2, y+1/2, x'
 82	'y, x+1/2, z+1/2'
 83	'y+1/2, x, z+1/2'
 84	'y+1/2, x+1/2, z'
 85	'x, z+1/2, y+1/2'
 86	'x+1/2, z, y+1/2'
 87	'x+1/2, z+1/2, y'
 88	'z, x+1/2, y+1/2'
 89	'z+1/2, x, y+1/2'
 90	'z+1/2, x+1/2, y'
 91	'y, z+1/2, x+1/2'
 92	'y+1/2, z, x+1/2'
 93	'y+1/2, z+1/2, x'
 94	'x, y+1/2, z+1/2'
 95	'x+1/2, y, z+1/2'
 96	'x+1/2, y+1/2, z'
loop_
_atom_type_symbol
_atom_type_oxidation_number
Ga3+	3
S2-	-2
loop_
_atom_site_label
_atom_site_type_symbol
_atom_site_symmetry_multiplicity
_atom_site_Wyckoff_symbol
_atom_site_fract_x
_atom_site_fract_y
_atom_site_fract_z
_atom_site_occupancy
_atom_site_attached_hydrogens
Ga1 Ga3+ 4 a 0 0 0 0.667 0 
S1 S2- 4 c 0.25 0.25 0.25 1. 0 

#End of data_76753-ICSD


data_409550-ICSD
#©2015 by Fachinformationszentrum Karlsruhe, and the U.S. Secretary of 
#Commerce on behalf of the United States.  All rights reserved.
_database_code_ICSD                409550
_audit_creation_date               2002/10/01
_audit_update_record               2005/04/01
_chemical_name_systematic          'Digallium Sulfide'
_chemical_formula_structural       'Ga2 S3'
_chemical_formula_sum              'Ga2 S3'
_publ_section_title
;
Refinement of the crystal structure of digallium trisulfide, Ga2 S3
;
loop_
_citation_id
_citation_journal_abbrev
_citation_year
_citation_journal_volume
_citation_page_first
_citation_page_last
_citation_journal_id_ASTM
primary 'Zeitschrift fuer Kristallographie - New Crystal Structures'
 2001 216 327 328 ZKNSFT
_publ_author_name
;
Jones, C.Y.;Bryan, J.C.;Kirschbaum, K.;Edwards, J.G.
;
_cell_length_a                     11.107(2)
_cell_length_b                     6.395(1)
_cell_length_c                     7.021(1)
_cell_angle_alpha                  90.
_cell_angle_beta                   121.17(3)
_cell_angle_gamma                  90.
_cell_volume                       426.7
_cell_formula_units_Z              4
_symmetry_space_group_name_H-M     'C 1 c 1'
_symmetry_Int_Tables_number        9
_refine_ls_R_factor_all            0.035
loop_
_symmetry_equiv_pos_site_id
_symmetry_equiv_pos_as_xyz
  1	'x, -y, z+1/2'
  2	'x, y, z'
  3	'x+1/2, -y+1/2, z+1/2'
  4	'x+1/2, y+1/2, z'
loop_
_atom_type_symbol
_atom_type_oxidation_number
Ga3+	3
S2-	-2
loop_
_atom_site_label
_atom_site_type_symbol
_atom_site_symmetry_multiplicity
_atom_site_Wyckoff_symbol
_atom_site_fract_x
_atom_site_fract_y
_atom_site_fract_z
_atom_site_occupancy
_atom_site_attached_hydrogens
Ga1 Ga3+ 4 a 0.04213(8) 0.40234(19) 0.12512(11) 1. 0 
Ga2 Ga3+ 4 a 0.20026(9) 0.93206(18) 0.11559(13) 1. 0 
S1 S2- 4 a -.0050(3) 1.0861(4) -.0162(6) 1. 0 
S2 S2- 4 a 0.3378(3) 0.9075(3) 0.4999(4) 1. 0 
S3 S2- 4 a 0.1741(3) 0.5840(3) 0.0084(4) 1. 0 

loop_
_atom_site_aniso_label
_atom_site_aniso_type_symbol
_atom_site_aniso_U_11
_atom_site_aniso_U_22
_atom_site_aniso_U_33
_atom_site_aniso_U_12
_atom_site_aniso_U_13
_atom_site_aniso_U_23
Ga1 Ga3+ 0.0068(7) 0.0130(6) 0.0096(7) 0.0007(4) 0.0042(5) 0.0005(4)
Ga2 Ga3+ 0.0065(7) 0.0133(6) 0.0102(7) -.0003(4) 0.0045(5) -.0012(4)
S1 S2- 0.0065(12) 0.0160(13) 0.0182(13) -.0001(8) 0.0043(10) -.0048(9)
S2 S2- 0.0041(12) 0.0153(12) 0.0098(15) -.0009(8) 0.0036(11) -.0019(8)
S3 S2- 0.0084(13) 0.0121(12) 0.0095(12) -.0017(8) 0.0056(10) -.0010(8)
#End of data_409550-ICSD


data_53586-ICSD
#©2015 by Fachinformationszentrum Karlsruhe, and the U.S. Secretary of 
#Commerce on behalf of the United States.  All rights reserved.
_database_code_ICSD                53586
_audit_creation_date               2003/04/01
_chemical_name_systematic          'Gallium Sulfide (1/1)'
_chemical_formula_structural       'Ga S'
_chemical_formula_sum              'Ga1 S1'
_publ_section_title
;
Crystal structure of a new high pressure polymorph of Ga S
;
loop_
_citation_id
_citation_journal_abbrev
_citation_year
_citation_journal_volume
_citation_page_first
_citation_page_last
_citation_journal_id_ASTM
primary 'Solid State Communications' 1982 44 853 855 SSCOA4
_publ_author_name
;
d'Amour, H.;Holzapfel, W.B.;Polian, A.;Chevy, A.
;
_cell_length_a                     3.576(3)
_cell_length_b                     3.576
_cell_length_c                     15.26(3)
_cell_angle_alpha                  90.
_cell_angle_beta                   90.
_cell_angle_gamma                  120.
_cell_volume                       169
_cell_formula_units_Z              4
_symmetry_space_group_name_H-M     'P 63/m m c'
_symmetry_Int_Tables_number        194
_refine_ls_R_factor_all            0.084
loop_
_symmetry_equiv_pos_site_id
_symmetry_equiv_pos_as_xyz
  1	'x, x-y, -z+1/2'
  2	'-x+y, y, -z+1/2'
  3	'-y, -x, -z+1/2'
  4	'-x+y, -x, -z+1/2'
  5	'-y, x-y, -z+1/2'
  6	'x, y, -z+1/2'
  7	'-x, -x+y, z+1/2'
  8	'x-y, -y, z+1/2'
  9	'y, x, z+1/2'
 10	'x-y, x, z+1/2'
 11	'y, -x+y, z+1/2'
 12	'-x, -y, z+1/2'
 13	'-x, -x+y, -z'
 14	'x-y, -y, -z'
 15	'y, x, -z'
 16	'x-y, x, -z'
 17	'y, -x+y, -z'
 18	'-x, -y, -z'
 19	'x, x-y, z'
 20	'-x+y, y, z'
 21	'-y, -x, z'
 22	'-x+y, -x, z'
 23	'-y, x-y, z'
 24	'x, y, z'
loop_
_atom_type_symbol
_atom_type_oxidation_number
Ga2+	2
S2-	-2
loop_
_atom_site_label
_atom_site_type_symbol
_atom_site_symmetry_multiplicity
_atom_site_Wyckoff_symbol
_atom_site_fract_x
_atom_site_fract_y
_atom_site_fract_z
_atom_site_occupancy
_atom_site_attached_hydrogens
Ga1 Ga2+ 4 f 0.3333 0.6667 0.1702 1. 0 
S1 S2- 4 f 0.3333 0.6667 0.6007 1. 0 

#End of data_53586-ICSD


data_53587-ICSD
#©2015 by Fachinformationszentrum Karlsruhe, and the U.S. Secretary of 
#Commerce on behalf of the United States.  All rights reserved.
_database_code_ICSD                53587
_audit_creation_date               2003/04/01
_chemical_name_systematic          'Gallium Sulfide (1/1)'
_chemical_formula_structural       'Ga S'
_chemical_formula_sum              'Ga1 S1'
_publ_section_title
;
Crystal structure of a new high pressure polymorph of Ga S
;
loop_
_citation_id
_citation_journal_abbrev
_citation_year
_citation_journal_volume
_citation_page_first
_citation_page_last
_citation_journal_id_ASTM
primary 'Solid State Communications' 1982 44 853 855 SSCOA4
_publ_author_name
;
d'Amour, H.;Holzapfel, W.B.;Polian, A.;Chevy, A.
;
_cell_length_a                     3.585(4)
_cell_length_b                     3.585
_cell_length_c                     15.53(4)
_cell_angle_alpha                  90.
_cell_angle_beta                   90.
_cell_angle_gamma                  120.
_cell_volume                       172.85
_cell_formula_units_Z              4
_symmetry_space_group_name_H-M     'P 63/m m c'
_symmetry_Int_Tables_number        194
_refine_ls_R_factor_all            0.097
loop_
_symmetry_equiv_pos_site_id
_symmetry_equiv_pos_as_xyz
  1	'x, x-y, -z+1/2'
  2	'-x+y, y, -z+1/2'
  3	'-y, -x, -z+1/2'
  4	'-x+y, -x, -z+1/2'
  5	'-y, x-y, -z+1/2'
  6	'x, y, -z+1/2'
  7	'-x, -x+y, z+1/2'
  8	'x-y, -y, z+1/2'
  9	'y, x, z+1/2'
 10	'x-y, x, z+1/2'
 11	'y, -x+y, z+1/2'
 12	'-x, -y, z+1/2'
 13	'-x, -x+y, -z'
 14	'x-y, -y, -z'
 15	'y, x, -z'
 16	'x-y, x, -z'
 17	'y, -x+y, -z'
 18	'-x, -y, -z'
 19	'x, x-y, z'
 20	'-x+y, y, z'
 21	'-y, -x, z'
 22	'-x+y, -x, z'
 23	'-y, x-y, z'
 24	'x, y, z'
loop_
_atom_type_symbol
_atom_type_oxidation_number
Ga2+	2
S2-	-2
loop_
_atom_site_label
_atom_site_type_symbol
_atom_site_symmetry_multiplicity
_atom_site_Wyckoff_symbol
_atom_site_fract_x
_atom_site_fract_y
_atom_site_fract_z
_atom_site_occupancy
_atom_site_attached_hydrogens
Ga1 Ga2+ 4 f 0.3333 0.6667 0.1714 1. 0 
S1 S2- 4 f 0.3333 0.6667 0.6035 1. 0 

#End of data_53587-ICSD


data_53588-ICSD
#©2015 by Fachinformationszentrum Karlsruhe, and the U.S. Secretary of 
#Commerce on behalf of the United States.  All rights reserved.
_database_code_ICSD                53588
_audit_creation_date               2003/04/01
_chemical_name_systematic          'Gallium Sulfide (1/1)'
_chemical_formula_structural       'Ga S'
_chemical_formula_sum              'Ga1 S1'
_publ_section_title
;
Crystal structure of a new high pressure polymorph of Ga S
;
loop_
_citation_id
_citation_journal_abbrev
_citation_year
_citation_journal_volume
_citation_page_first
_citation_page_last
_citation_journal_id_ASTM
primary 'Solid State Communications' 1982 44 853 855 SSCOA4
_publ_author_name
;
d'Amour, H.;Holzapfel, W.B.;Polian, A.;Chevy, A.
;
_cell_length_a                     3.495(2)
_cell_length_b                     3.495
_cell_length_c                     14.23(4)
_cell_angle_alpha                  90.
_cell_angle_beta                   90.
_cell_angle_gamma                  120.
_cell_volume                       150.53
_cell_formula_units_Z              4
_symmetry_space_group_name_H-M     'P 63/m m c'
_symmetry_Int_Tables_number        194
_refine_ls_R_factor_all            0.085
loop_
_symmetry_equiv_pos_site_id
_symmetry_equiv_pos_as_xyz
  1	'x, x-y, -z+1/2'
  2	'-x+y, y, -z+1/2'
  3	'-y, -x, -z+1/2'
  4	'-x+y, -x, -z+1/2'
  5	'-y, x-y, -z+1/2'
  6	'x, y, -z+1/2'
  7	'-x, -x+y, z+1/2'
  8	'x-y, -y, z+1/2'
  9	'y, x, z+1/2'
 10	'x-y, x, z+1/2'
 11	'y, -x+y, z+1/2'
 12	'-x, -y, z+1/2'
 13	'-x, -x+y, -z'
 14	'x-y, -y, -z'
 15	'y, x, -z'
 16	'x-y, x, -z'
 17	'y, -x+y, -z'
 18	'-x, -y, -z'
 19	'x, x-y, z'
 20	'-x+y, y, z'
 21	'-y, -x, z'
 22	'-x+y, -x, z'
 23	'-y, x-y, z'
 24	'x, y, z'
loop_
_atom_type_symbol
_atom_type_oxidation_number
Ga2+	2
S2-	-2
loop_
_atom_site_label
_atom_site_type_symbol
_atom_site_symmetry_multiplicity
_atom_site_Wyckoff_symbol
_atom_site_fract_x
_atom_site_fract_y
_atom_site_fract_z
_atom_site_occupancy
_atom_site_attached_hydrogens
Ga1 Ga2+ 4 f 0.3333 0.6667 0.1662 1. 0 
S1 S2- 4 f 0.3333 0.6667 0.5941 1. 0 

#End of data_53588-ICSD


data_53589-ICSD
#©2015 by Fachinformationszentrum Karlsruhe, and the U.S. Secretary of 
#Commerce on behalf of the United States.  All rights reserved.
_database_code_ICSD                53589
_audit_creation_date               2003/04/01
_chemical_name_systematic          'Gallium Sulfide (1/1)'
_chemical_formula_structural       'Ga S'
_chemical_formula_sum              'Ga1 S1'
_publ_section_title
;
Crystal structure of a new high pressure polymorph of Ga S
;
loop_
_citation_id
_citation_journal_abbrev
_citation_year
_citation_journal_volume
_citation_page_first
_citation_page_last
_citation_journal_id_ASTM
primary 'Solid State Communications' 1982 44 853 855 SSCOA4
_publ_author_name
;
d'Amour, H.;Holzapfel, W.B.;Polian, A.;Chevy, A.
;
_cell_length_a                     3.547(3)
_cell_length_b                     3.547
_cell_length_c                     14.74(2)
_cell_angle_alpha                  90.
_cell_angle_beta                   90.
_cell_angle_gamma                  120.
_cell_volume                       160.6
_cell_formula_units_Z              4
_symmetry_space_group_name_H-M     'P 63/m m c'
_symmetry_Int_Tables_number        194
_refine_ls_R_factor_all            0.063
loop_
_symmetry_equiv_pos_site_id
_symmetry_equiv_pos_as_xyz
  1	'x, x-y, -z+1/2'
  2	'-x+y, y, -z+1/2'
  3	'-y, -x, -z+1/2'
  4	'-x+y, -x, -z+1/2'
  5	'-y, x-y, -z+1/2'
  6	'x, y, -z+1/2'
  7	'-x, -x+y, z+1/2'
  8	'x-y, -y, z+1/2'
  9	'y, x, z+1/2'
 10	'x-y, x, z+1/2'
 11	'y, -x+y, z+1/2'
 12	'-x, -y, z+1/2'
 13	'-x, -x+y, -z'
 14	'x-y, -y, -z'
 15	'y, x, -z'
 16	'x-y, x, -z'
 17	'y, -x+y, -z'
 18	'-x, -y, -z'
 19	'x, x-y, z'
 20	'-x+y, y, z'
 21	'-y, -x, z'
 22	'-x+y, -x, z'
 23	'-y, x-y, z'
 24	'x, y, z'
loop_
_atom_type_symbol
_atom_type_oxidation_number
Ga2+	2
S2-	-2
loop_
_atom_site_label
_atom_site_type_symbol
_atom_site_symmetry_multiplicity
_atom_site_Wyckoff_symbol
_atom_site_fract_x
_atom_site_fract_y
_atom_site_fract_z
_atom_site_occupancy
_atom_site_attached_hydrogens
Ga1 Ga2+ 4 f 0.3333 0.6667 0.1677 1. 0 
S1 S2- 4 f 0.3333 0.6667 0.5980 1. 0 

#End of data_53589-ICSD


data_53590-ICSD
#©2015 by Fachinformationszentrum Karlsruhe, and the U.S. Secretary of 
#Commerce on behalf of the United States.  All rights reserved.
_database_code_ICSD                53590
_audit_creation_date               2003/04/01
_chemical_name_systematic          'Gallium Sulfide (1/1)'
_chemical_formula_structural       'Ga S'
_chemical_formula_sum              'Ga1 S1'
_publ_section_title
;
Crystal structure of a new high pressure polymorph of Ga S
;
loop_
_citation_id
_citation_journal_abbrev
_citation_year
_citation_journal_volume
_citation_page_first
_citation_page_last
_citation_journal_id_ASTM
primary 'Solid State Communications' 1982 44 853 855 SSCOA4
_publ_author_name
;
d'Amour, H.;Holzapfel, W.B.;Polian, A.;Chevy, A.
;
_cell_length_a                     3.521(2)
_cell_length_b                     3.521
_cell_length_c                     14.42(2)
_cell_angle_alpha                  90.
_cell_angle_beta                   90.
_cell_angle_gamma                  120.
_cell_volume                       154.82
_cell_formula_units_Z              4
_symmetry_space_group_name_H-M     'P 63/m m c'
_symmetry_Int_Tables_number        194
_refine_ls_R_factor_all            0.077
loop_
_symmetry_equiv_pos_site_id
_symmetry_equiv_pos_as_xyz
  1	'x, x-y, -z+1/2'
  2	'-x+y, y, -z+1/2'
  3	'-y, -x, -z+1/2'
  4	'-x+y, -x, -z+1/2'
  5	'-y, x-y, -z+1/2'
  6	'x, y, -z+1/2'
  7	'-x, -x+y, z+1/2'
  8	'x-y, -y, z+1/2'
  9	'y, x, z+1/2'
 10	'x-y, x, z+1/2'
 11	'y, -x+y, z+1/2'
 12	'-x, -y, z+1/2'
 13	'-x, -x+y, -z'
 14	'x-y, -y, -z'
 15	'y, x, -z'
 16	'x-y, x, -z'
 17	'y, -x+y, -z'
 18	'-x, -y, -z'
 19	'x, x-y, z'
 20	'-x+y, y, z'
 21	'-y, -x, z'
 22	'-x+y, -x, z'
 23	'-y, x-y, z'
 24	'x, y, z'
loop_
_atom_type_symbol
_atom_type_oxidation_number
Ga2+	2
S2-	-2
loop_
_atom_site_label
_atom_site_type_symbol
_atom_site_symmetry_multiplicity
_atom_site_Wyckoff_symbol
_atom_site_fract_x
_atom_site_fract_y
_atom_site_fract_z
_atom_site_occupancy
_atom_site_attached_hydrogens
Ga1 Ga2+ 4 f 0.3333 0.6667 0.1667 1. 0 
S1 S2- 4 f 0.3333 0.6667 0.5949 1. 0 

#End of data_53590-ICSD


data_34647-ICSD
#©2015 by Fachinformationszentrum Karlsruhe, and the U.S. Secretary of 
#Commerce on behalf of the United States.  All rights reserved.
_database_code_ICSD                34647
_audit_creation_date               1980/01/01
_audit_update_record               2012/02/01
_chemical_name_systematic          'Gallium Sulfide - Alpha'
_chemical_formula_structural       'Ga2 S3'
_chemical_formula_sum              'Ga2 S3'
_publ_section_title
;
The crystal structure of alpha-Ga2 S3
;
loop_
_citation_id
_citation_journal_abbrev
_citation_year
_citation_journal_volume
_citation_page_first
_citation_page_last
_citation_journal_id_ASTM
primary 'Acta Crystallographica (1,1948-23,1967)' 1963 16 946 949 ACCRA9
_publ_author_name                  'Goodyear, J.;Steigmann, G.A.'
_cell_length_a                     11.14
_cell_length_b                     6.411
_cell_length_c                     7.038
_cell_angle_alpha                  90.
_cell_angle_beta                   121.22
_cell_angle_gamma                  90.
_cell_volume                       429.85
_cell_formula_units_Z              4
_symmetry_space_group_name_H-M     'C 1 c 1'
_symmetry_Int_Tables_number        9
_refine_ls_R_factor_all            0.13
loop_
_symmetry_equiv_pos_site_id
_symmetry_equiv_pos_as_xyz
  1	'x, -y, z+1/2'
  2	'x, y, z'
  3	'x+1/2, -y+1/2, z+1/2'
  4	'x+1/2, y+1/2, z'
loop_
_atom_type_symbol
_atom_type_oxidation_number
Ga3+	3
S2-	-2
loop_
_atom_site_label
_atom_site_type_symbol
_atom_site_symmetry_multiplicity
_atom_site_Wyckoff_symbol
_atom_site_fract_x
_atom_site_fract_y
_atom_site_fract_z
_atom_site_occupancy
_atom_site_attached_hydrogens
_atom_site_B_iso_or_equiv
Ga1 Ga3+ 4 a 0.043(1) 0.400(2) 0.130(2) 1. 0 1.17 
Ga2 Ga3+ 4 a 0.204(1) 0.935(2) 0.120(2) 1. 0 0.52 
S1 S2- 4 a -.002(2) 0.081(5) -.017(4) 1. 0 1.33 
S2 S2- 4 a 0.177(1) 0.580(3) 0.012(3) 1. 0 0.62 
S3 S2- 4 a 0.339(2) 0.090(6) 0.004(5) 1. 0 1.35 

#End of data_34647-ICSD


data_601919-ICSD
#©2015 by Fachinformationszentrum Karlsruhe, and the U.S. Secretary of 
#Commerce on behalf of the United States.  All rights reserved.
_database_code_ICSD                601919
_audit_creation_date               2010/02/01
_chemical_name_systematic          'Gallium Sulfide (1.34/2)'
_chemical_formula_structural       'Ga1.34 S2'
_chemical_formula_sum              'Ga1.34 S2'
_publ_section_title
;
The gallium sulfide-silver sulfide system. Phase diagram. 
Crystallographic study and ionic conductivity of silver gallium 
sulfide (Ag9 Ga S6)
;
loop_
_citation_id
_citation_journal_abbrev
_citation_year
_citation_journal_volume
_citation_journal_issue
_citation_page_first
_citation_page_last
_citation_journal_id_ASTM
primary 'Annales de Chimie (Paris) (Vol=Year)' 1983 8 3 215 225 ANCPAC
_publ_author_name
;
Guittard, M.;Carcaly, C.;Kabre, T.S.;Fourcroy, P.H.;Flahaut, J.
;
_cell_length_a                     3.68
_cell_length_b                     3.68
_cell_length_c                     6.02
_cell_angle_alpha                  90.0
_cell_angle_beta                   90.0
_cell_angle_gamma                  120.0
_cell_volume                       70.6
_cell_formula_units_Z              1
_symmetry_space_group_name_H-M     'P 63 m c'
_symmetry_Int_Tables_number        186
loop_
_symmetry_equiv_pos_site_id
_symmetry_equiv_pos_as_xyz
  1	'-x, -x+y, z+1/2'
  2	'x-y, -y, z+1/2'
  3	'y, x, z+1/2'
  4	'x-y, x, z+1/2'
  5	'y, -x+y, z+1/2'
  6	'-x, -y, z+1/2'
  7	'x, x-y, z'
  8	'-x+y, y, z'
  9	'-y, -x, z'
 10	'-x+y, -x, z'
 11	'-y, x-y, z'
 12	'x, y, z'
loop_
_atom_type_symbol
_atom_type_oxidation_number
Ga3+	3
S2-	-2
loop_
_atom_site_label
_atom_site_type_symbol
_atom_site_symmetry_multiplicity
_atom_site_Wyckoff_symbol
_atom_site_fract_x
_atom_site_fract_y
_atom_site_fract_z
_atom_site_occupancy
_atom_site_attached_hydrogens
Ga1 Ga3+ 2 b 0.3333 0.6667 0 .67 0 
S1 S2- 2 b 0.3333 0.6667 0.376 1. 0 

#End of data_601919-ICSD


data_635243-ICSD
#©2015 by Fachinformationszentrum Karlsruhe, and the U.S. Secretary of 
#Commerce on behalf of the United States.  All rights reserved.
_database_code_ICSD                635243
_audit_creation_date               2012/08/01
_chemical_name_systematic          'Gallium Sulfide (2/3)'
_chemical_formula_structural       'Ga2 S3'
_chemical_formula_sum              'Ga2 S3'
_publ_section_title
;
New single-crystalline phases in the system Ga2 S3 - In2 S3
;
loop_
_citation_id
_citation_journal_abbrev
_citation_year
_citation_journal_volume
_citation_page_first
_citation_page_last
_citation_journal_id_ASTM
primary 'Journal of Crystal Growth' 1970 7 285 289 JCRGAE
_publ_author_name
;
Kraemer, V.;Nitsche, R.;Ottemann, J.
;
_cell_length_a                     11.04
_cell_length_b                     6.42
_cell_length_c                     7.02
_cell_angle_alpha                  90.0
_cell_angle_beta                   121.2
_cell_angle_gamma                  90.0
_cell_volume                       425.59
_cell_formula_units_Z              4
_symmetry_space_group_name_H-M     'C 1 c 1'
_symmetry_Int_Tables_number        9
loop_
_symmetry_equiv_pos_site_id
_symmetry_equiv_pos_as_xyz
  1	'x, -y, z+1/2'
  2	'x, y, z'
  3	'x+1/2, -y+1/2, z+1/2'
  4	'x+1/2, y+1/2, z'
loop_
_atom_type_symbol
_atom_type_oxidation_number
Ga3+	3
S2-	-2
loop_
_atom_site_label
_atom_site_type_symbol
_atom_site_symmetry_multiplicity
_atom_site_Wyckoff_symbol
_atom_site_fract_x
_atom_site_fract_y
_atom_site_fract_z
_atom_site_occupancy
_atom_site_attached_hydrogens
Ga1 Ga3+ 4 a 0.043 0.400 0.130 1. 0 
Ga2 Ga3+ 4 a 0.204 0.935 0.120 1. 0 
S1 S2- 4 a -.002 0.081 -.017 1. 0 
S2 S2- 4 a 0.177 0.580 0.012 1. 0 
S3 S2- 4 a 0.339 0.090 0.004 1. 0 

#End of data_635243-ICSD


data_635244-ICSD
#©2015 by Fachinformationszentrum Karlsruhe, and the U.S. Secretary of 
#Commerce on behalf of the United States.  All rights reserved.
_database_code_ICSD                635244
_audit_creation_date               2012/08/01
_chemical_name_systematic          'Gallium Sulfide (1/1)'
_chemical_formula_structural       'Ga S'
_chemical_formula_sum              'Ga1 S1'
_publ_section_title
;
Structural studies of compounds in the series Ga Sx Se (1-x) (0 <= x 
<= 1) grown by iodine vapour transport
;
loop_
_citation_id
_citation_journal_abbrev
_citation_year
_citation_journal_volume
_citation_page_first
_citation_page_last
_citation_journal_id_ASTM
primary 'Journal of Materials Science' 1978 13 2394 2402 JMTSAS
2 'Journal of Solid State Chemistry' 1982 41 97 103 JSSCBI
_publ_author_name                  'Whitehouse, C.R.;Balchin, A.A.'
_cell_length_a                     3.586(2)
_cell_length_b                     3.586(2)
_cell_length_c                     15.498(8)
_cell_angle_alpha                  90.0
_cell_angle_beta                   90.0
_cell_angle_gamma                  120.0
_cell_volume                       172.59
_cell_formula_units_Z              4
_symmetry_space_group_name_H-M     'P 63/m m c'
_symmetry_Int_Tables_number        194
loop_
_symmetry_equiv_pos_site_id
_symmetry_equiv_pos_as_xyz
  1	'x, x-y, -z+1/2'
  2	'-x+y, y, -z+1/2'
  3	'-y, -x, -z+1/2'
  4	'-x+y, -x, -z+1/2'
  5	'-y, x-y, -z+1/2'
  6	'x, y, -z+1/2'
  7	'-x, -x+y, z+1/2'
  8	'x-y, -y, z+1/2'
  9	'y, x, z+1/2'
 10	'x-y, x, z+1/2'
 11	'y, -x+y, z+1/2'
 12	'-x, -y, z+1/2'
 13	'-x, -x+y, -z'
 14	'x-y, -y, -z'
 15	'y, x, -z'
 16	'x-y, x, -z'
 17	'y, -x+y, -z'
 18	'-x, -y, -z'
 19	'x, x-y, z'
 20	'-x+y, y, z'
 21	'-y, -x, z'
 22	'-x+y, -x, z'
 23	'-y, x-y, z'
 24	'x, y, z'
loop_
_atom_type_symbol
_atom_type_oxidation_number
Ga2+	2
S2-	-2
loop_
_atom_site_label
_atom_site_type_symbol
_atom_site_symmetry_multiplicity
_atom_site_Wyckoff_symbol
_atom_site_fract_x
_atom_site_fract_y
_atom_site_fract_z
_atom_site_occupancy
_atom_site_attached_hydrogens
Ga1 Ga2+ 4 f 0.3333 0.6667 .171 1. 0 
S1 S2- 4 f 0.3333 0.6667 .602 1. 0 

#End of data_635244-ICSD


data_635246-ICSD
#©2015 by Fachinformationszentrum Karlsruhe, and the U.S. Secretary of 
#Commerce on behalf of the United States.  All rights reserved.
_database_code_ICSD                635246
_audit_creation_date               2012/08/01
_chemical_name_systematic          'Gallium Sulfide (2/3)'
_chemical_formula_structural       'Ga1.33 S2'
_chemical_formula_sum              'Ga1.33 S2'
_publ_section_title
;
SYSTEME Ga2S3-PbS DIAGRAMME DE PHASE, ETUDE CRISTALLOGRAPHIQUE
;
loop_
_citation_id
_citation_journal_abbrev
_citation_year
_citation_journal_volume
_citation_page_first
_citation_page_last
_citation_journal_id_ASTM
primary 'Materials Research Bulletin' 1979 14 1119 1124 MRBUAC
_publ_author_name
;
Chilouet, A.;Mazurier, A.;Guittard, M.
;
_cell_length_a                     3.68
_cell_length_b                     3.68
_cell_length_c                     6.02
_cell_angle_alpha                  90.0
_cell_angle_beta                   90.0
_cell_angle_gamma                  120.0
_cell_volume                       70.6
_cell_formula_units_Z              1
_symmetry_space_group_name_H-M     'P 63 m c'
_symmetry_Int_Tables_number        186
loop_
_symmetry_equiv_pos_site_id
_symmetry_equiv_pos_as_xyz
  1	'-x, -x+y, z+1/2'
  2	'x-y, -y, z+1/2'
  3	'y, x, z+1/2'
  4	'x-y, x, z+1/2'
  5	'y, -x+y, z+1/2'
  6	'-x, -y, z+1/2'
  7	'x, x-y, z'
  8	'-x+y, y, z'
  9	'-y, -x, z'
 10	'-x+y, -x, z'
 11	'-y, x-y, z'
 12	'x, y, z'
loop_
_atom_type_symbol
_atom_type_oxidation_number
Ga3+	3
S2-	-2
loop_
_atom_site_label
_atom_site_type_symbol
_atom_site_symmetry_multiplicity
_atom_site_Wyckoff_symbol
_atom_site_fract_x
_atom_site_fract_y
_atom_site_fract_z
_atom_site_occupancy
_atom_site_attached_hydrogens
Ga1 Ga3+ 2 b 0.3333 0.6667 0 0.667 0 
S1 S2- 2 b 0.3333 0.6667 0.375 1. 0 

#End of data_635246-ICSD


data_635251-ICSD
#©2015 by Fachinformationszentrum Karlsruhe, and the U.S. Secretary of 
#Commerce on behalf of the United States.  All rights reserved.
_database_code_ICSD                635251
_audit_creation_date               2012/08/01
_chemical_name_systematic          'Gallium Sulfide (1/1)'
_chemical_formula_structural       'Ga S'
_chemical_formula_sum              'Ga1 S1'
_publ_section_title
;
Electron diffraction study of melt-and vapour-grown Ga Se1-x Sx 
single crystals
;
loop_
_citation_id
_citation_journal_abbrev
_citation_year
_citation_journal_volume
_citation_page_first
_citation_page_last
_citation_journal_id_ASTM
primary 'Physica Status Solidi A - Applications and Materials'
 1976 33 563 571 PSSABA
_publ_author_name
;
Arancia, G.;Grandolfo, M.;Manfredotti, C.;Rizzo, A.
;
_cell_length_a                     3.593(5)
_cell_length_b                     3.593(5)
_cell_length_c                     15.54(2)
_cell_angle_alpha                  90.0
_cell_angle_beta                   90.0
_cell_angle_gamma                  120.0
_cell_volume                       173.74
_cell_formula_units_Z              4
_symmetry_space_group_name_H-M     'P 63/m m c'
_symmetry_Int_Tables_number        194
loop_
_symmetry_equiv_pos_site_id
_symmetry_equiv_pos_as_xyz
  1	'x, x-y, -z+1/2'
  2	'-x+y, y, -z+1/2'
  3	'-y, -x, -z+1/2'
  4	'-x+y, -x, -z+1/2'
  5	'-y, x-y, -z+1/2'
  6	'x, y, -z+1/2'
  7	'-x, -x+y, z+1/2'
  8	'x-y, -y, z+1/2'
  9	'y, x, z+1/2'
 10	'x-y, x, z+1/2'
 11	'y, -x+y, z+1/2'
 12	'-x, -y, z+1/2'
 13	'-x, -x+y, -z'
 14	'x-y, -y, -z'
 15	'y, x, -z'
 16	'x-y, x, -z'
 17	'y, -x+y, -z'
 18	'-x, -y, -z'
 19	'x, x-y, z'
 20	'-x+y, y, z'
 21	'-y, -x, z'
 22	'-x+y, -x, z'
 23	'-y, x-y, z'
 24	'x, y, z'
loop_
_atom_type_symbol
_atom_type_oxidation_number
Ga2+	2
S2-	-2
loop_
_atom_site_label
_atom_site_type_symbol
_atom_site_symmetry_multiplicity
_atom_site_Wyckoff_symbol
_atom_site_fract_x
_atom_site_fract_y
_atom_site_fract_z
_atom_site_occupancy
_atom_site_attached_hydrogens
Ga1 Ga2+ 4 f 0.3333 0.6667 .171 1. 0 
S1 S2- 4 f 0.3333 0.6667 .602 1. 0 

#End of data_635251-ICSD


data_635254-ICSD
#©2015 by Fachinformationszentrum Karlsruhe, and the U.S. Secretary of 
#Commerce on behalf of the United States.  All rights reserved.
_database_code_ICSD                635254
_audit_creation_date               2008/08/01
_audit_update_record               2012/02/01
_chemical_name_systematic          'Gallium Sulfide (1/1)'
_chemical_formula_structural       'Ga S'
_chemical_formula_sum              'Ga1 S1'
_publ_section_title
;
Crystal structure of a new high pressure polymorph of GaS
;
loop_
_citation_id
_citation_journal_abbrev
_citation_year
_citation_journal_volume
_citation_journal_issue
_citation_page_first
_citation_page_last
_citation_journal_id_ASTM
primary 'Solid State Communications' 1982 44 6 853 855 SSCOA4
_publ_author_name
;
d'Amour, H.;Holzapfel, W.B.;Polian, A.;Chevy, A.
;
_cell_length_a                     3.504(1)
_cell_length_b                     3.504(1)
_cell_length_c                     14.29(1)
_cell_angle_alpha                  90.0
_cell_angle_beta                   90.0
_cell_angle_gamma                  120.0
_cell_volume                       151.95
_cell_formula_units_Z              4
_symmetry_space_group_name_H-M     'P 63/m m c'
_symmetry_Int_Tables_number        194
_refine_ls_R_factor_all            0.092
loop_
_symmetry_equiv_pos_site_id
_symmetry_equiv_pos_as_xyz
  1	'x, x-y, -z+1/2'
  2	'-x+y, y, -z+1/2'
  3	'-y, -x, -z+1/2'
  4	'-x+y, -x, -z+1/2'
  5	'-y, x-y, -z+1/2'
  6	'x, y, -z+1/2'
  7	'-x, -x+y, z+1/2'
  8	'x-y, -y, z+1/2'
  9	'y, x, z+1/2'
 10	'x-y, x, z+1/2'
 11	'y, -x+y, z+1/2'
 12	'-x, -y, z+1/2'
 13	'-x, -x+y, -z'
 14	'x-y, -y, -z'
 15	'y, x, -z'
 16	'x-y, x, -z'
 17	'y, -x+y, -z'
 18	'-x, -y, -z'
 19	'x, x-y, z'
 20	'-x+y, y, z'
 21	'-y, -x, z'
 22	'-x+y, -x, z'
 23	'-y, x-y, z'
 24	'x, y, z'
loop_
_atom_type_symbol
_atom_type_oxidation_number
Ga2+	2
S2-	-2
loop_
_atom_site_label
_atom_site_type_symbol
_atom_site_symmetry_multiplicity
_atom_site_Wyckoff_symbol
_atom_site_fract_x
_atom_site_fract_y
_atom_site_fract_z
_atom_site_occupancy
_atom_site_attached_hydrogens
_atom_site_B_iso_or_equiv
Ga1 Ga2+ 4 e 0 0 0.1661 1 0 1.1 
S1 S2- 4 f 0.3333 0.6667 0.5921 1 0 .8 

#End of data_635254-ICSD


data_635259-ICSD
#©2015 by Fachinformationszentrum Karlsruhe, and the U.S. Secretary of 
#Commerce on behalf of the United States.  All rights reserved.
_database_code_ICSD                635259
_audit_creation_date               2008/08/01
_chemical_name_systematic          'Gallium Sulfide (1.34/2)'
_chemical_formula_structural       '(Ga2 S3)0.667'
_chemical_formula_sum              'Ga1.334 S2.001'
_publ_section_title
;
Untersuchungen ueber ternaere Chalkogenide. III. Ueber die Struktur 
des Zn Cr2 Se4 und Cd Cr2 Se4
;
loop_
_citation_id
_citation_journal_abbrev
_citation_year
_citation_journal_volume
_citation_page_first
_citation_page_last
_citation_journal_id_ASTM
primary 'Zeitschrift fuer Anorganische und Allgemeine Chemie (1950) (DE)'
 1949 259 135 142 ZAACAB
_publ_author_name                  'Hahn, H.;Klingler, W.'
_cell_length_a                     3.678(5)
_cell_length_b                     3.678(5)
_cell_length_c                     6.016(6)
_cell_angle_alpha                  90.0
_cell_angle_beta                   90.0
_cell_angle_gamma                  120.0
_cell_volume                       70.48
_cell_formula_units_Z              1
_symmetry_space_group_name_H-M     'P 63 m c'
_symmetry_Int_Tables_number        186
loop_
_symmetry_equiv_pos_site_id
_symmetry_equiv_pos_as_xyz
  1	'-x, -x+y, z+1/2'
  2	'x-y, -y, z+1/2'
  3	'y, x, z+1/2'
  4	'x-y, x, z+1/2'
  5	'y, -x+y, z+1/2'
  6	'-x, -y, z+1/2'
  7	'x, x-y, z'
  8	'-x+y, y, z'
  9	'-y, -x, z'
 10	'-x+y, -x, z'
 11	'-y, x-y, z'
 12	'x, y, z'
loop_
_atom_type_symbol
_atom_type_oxidation_number
Ga0+	0
S0+	0
loop_
_atom_site_label
_atom_site_type_symbol
_atom_site_symmetry_multiplicity
_atom_site_Wyckoff_symbol
_atom_site_fract_x
_atom_site_fract_y
_atom_site_fract_z
_atom_site_occupancy
_atom_site_attached_hydrogens
Ga1 Ga0+ 2 b 0.3333 0.6667 0.000 0.67 0 
S1 S0+ 2 b 0.3333 0.6667 0.375 1 0 

#End of data_635259-ICSD


data_654685-ICSD
#©2015 by Fachinformationszentrum Karlsruhe, and the U.S. Secretary of 
#Commerce on behalf of the United States.  All rights reserved.
_database_code_ICSD                654685
_audit_creation_date               2008/08/01
_chemical_name_systematic          'Gallium Sulfide (1/1)'
_chemical_formula_structural       'Ga S'
_chemical_formula_sum              'Ga1 S1'
_publ_section_title
;
Ueber die Kristallstruktur des Ga S
;
loop_
_citation_id
_citation_journal_abbrev
_citation_year
_citation_journal_volume
_citation_page_first
_citation_page_last
_citation_journal_id_ASTM
primary 'Zeitschrift fuer Anorganische und Allgemeine Chemie (1950) (DE)'
 1955 278 340 348 ZAACAB
_publ_author_name                  'Hahn, H.;Frank, G.'
_cell_length_a                     3.585
_cell_length_b                     3.585
_cell_length_c                     15.50
_cell_angle_alpha                  90.0
_cell_angle_beta                   90.0
_cell_angle_gamma                  120.0
_cell_volume                       172.52
_cell_formula_units_Z              4
_symmetry_space_group_name_H-M     'P 63/m m c'
_symmetry_Int_Tables_number        194
loop_
_symmetry_equiv_pos_site_id
_symmetry_equiv_pos_as_xyz
  1	'x, x-y, -z+1/2'
  2	'-x+y, y, -z+1/2'
  3	'-y, -x, -z+1/2'
  4	'-x+y, -x, -z+1/2'
  5	'-y, x-y, -z+1/2'
  6	'x, y, -z+1/2'
  7	'-x, -x+y, z+1/2'
  8	'x-y, -y, z+1/2'
  9	'y, x, z+1/2'
 10	'x-y, x, z+1/2'
 11	'y, -x+y, z+1/2'
 12	'-x, -y, z+1/2'
 13	'-x, -x+y, -z'
 14	'x-y, -y, -z'
 15	'y, x, -z'
 16	'x-y, x, -z'
 17	'y, -x+y, -z'
 18	'-x, -y, -z'
 19	'x, x-y, z'
 20	'-x+y, y, z'
 21	'-y, -x, z'
 22	'-x+y, -x, z'
 23	'-y, x-y, z'
 24	'x, y, z'
loop_
_atom_type_symbol
_atom_type_oxidation_number
Ga0+	0
S0+	0
loop_
_atom_site_label
_atom_site_type_symbol
_atom_site_symmetry_multiplicity
_atom_site_Wyckoff_symbol
_atom_site_fract_x
_atom_site_fract_y
_atom_site_fract_z
_atom_site_occupancy
_atom_site_attached_hydrogens
Ga1 Ga0+ 4 f 0.3333 0.6667 0.17 1 0 
S1 S0+ 4 f 0.3333 0.6667 0.60 1 0 

#End of data_654685-ICSD


data_658768-ICSD
#©2015 by Fachinformationszentrum Karlsruhe, and the U.S. Secretary of 
#Commerce on behalf of the United States.  All rights reserved.
_database_code_ICSD                658768
_audit_creation_date               2012/08/01
_chemical_name_systematic          'Gallium Sulfide (1/1)'
_chemical_formula_structural       'Ga S'
_chemical_formula_sum              'Ga1 S1'
_publ_section_title                'The Bi2Te3-Ga system'
loop_
_citation_id
_citation_journal_abbrev
_citation_year
_citation_journal_volume
_citation_journal_issue
_citation_page_first
_citation_page_last
_citation_journal_id_ASTM
primary 'Russian Journal of Inorganic Chemistry' 1994 39 7 1170 1172 RJICAQ
_publ_author_name                  'Safarov, M.G.'
_cell_length_a                     3.585
_cell_length_b                     3.585
_cell_length_c                     15.58
_cell_angle_alpha                  90.0
_cell_angle_beta                   90.0
_cell_angle_gamma                  120.0
_cell_volume                       173.41
_cell_formula_units_Z              4
_symmetry_space_group_name_H-M     'P 63/m m c'
_symmetry_Int_Tables_number        194
loop_
_symmetry_equiv_pos_site_id
_symmetry_equiv_pos_as_xyz
  1	'x, x-y, -z+1/2'
  2	'-x+y, y, -z+1/2'
  3	'-y, -x, -z+1/2'
  4	'-x+y, -x, -z+1/2'
  5	'-y, x-y, -z+1/2'
  6	'x, y, -z+1/2'
  7	'-x, -x+y, z+1/2'
  8	'x-y, -y, z+1/2'
  9	'y, x, z+1/2'
 10	'x-y, x, z+1/2'
 11	'y, -x+y, z+1/2'
 12	'-x, -y, z+1/2'
 13	'-x, -x+y, -z'
 14	'x-y, -y, -z'
 15	'y, x, -z'
 16	'x-y, x, -z'
 17	'y, -x+y, -z'
 18	'-x, -y, -z'
 19	'x, x-y, z'
 20	'-x+y, y, z'
 21	'-y, -x, z'
 22	'-x+y, -x, z'
 23	'-y, x-y, z'
 24	'x, y, z'
loop_
_atom_type_symbol
_atom_type_oxidation_number
Ga2+	2
S2-	-2
loop_
_atom_site_label
_atom_site_type_symbol
_atom_site_symmetry_multiplicity
_atom_site_Wyckoff_symbol
_atom_site_fract_x
_atom_site_fract_y
_atom_site_fract_z
_atom_site_occupancy
_atom_site_attached_hydrogens
Ga1 Ga2+ 4 f 0.3333 0.6667 .171 1. 0 
S1 S2- 4 f 0.3333 0.6667 .602 1. 0 

#End of data_658768-ICSD


data_173940-ICSD
#©2015 by Fachinformationszentrum Karlsruhe, and the U.S. Secretary of 
#Commerce on behalf of the United States.  All rights reserved.
_database_code_ICSD                173940
_audit_creation_date               2010/02/01
_chemical_name_systematic          'Gallium(II) Sulfide - Beta'
_chemical_formula_structural       'Ga S'
_chemical_formula_sum              'Ga1 S1'
_publ_section_title                'Charge-density analysis of Ga S'
loop_
_citation_id
_citation_journal_abbrev
_citation_year
_citation_journal_volume
_citation_journal_issue
_citation_page_first
_citation_page_last
_citation_journal_id_ASTM
primary 'Physical Review, Serie 3. B - Condensed Matter (18,1978-)'
 1982 25 6 4081 4088 PRBMDO
_publ_author_name
;
Kuhn, A.;Bourdon, A.;Rigoult, J.;Rimsky, A.
;
_cell_length_a                     3.592(1)
_cell_length_b                     3.592(1)
_cell_length_c                     15.465(3)
_cell_angle_alpha                  90.
_cell_angle_beta                   90.
_cell_angle_gamma                  120.
_cell_volume                       172.8
_cell_formula_units_Z              4
_symmetry_space_group_name_H-M     'P 63/m m c'
_symmetry_Int_Tables_number        194
_refine_ls_R_factor_all            0.024
loop_
_symmetry_equiv_pos_site_id
_symmetry_equiv_pos_as_xyz
  1	'x, x-y, -z+1/2'
  2	'-x+y, y, -z+1/2'
  3	'-y, -x, -z+1/2'
  4	'-x+y, -x, -z+1/2'
  5	'-y, x-y, -z+1/2'
  6	'x, y, -z+1/2'
  7	'-x, -x+y, z+1/2'
  8	'x-y, -y, z+1/2'
  9	'y, x, z+1/2'
 10	'x-y, x, z+1/2'
 11	'y, -x+y, z+1/2'
 12	'-x, -y, z+1/2'
 13	'-x, -x+y, -z'
 14	'x-y, -y, -z'
 15	'y, x, -z'
 16	'x-y, x, -z'
 17	'y, -x+y, -z'
 18	'-x, -y, -z'
 19	'x, x-y, z'
 20	'-x+y, y, z'
 21	'-y, -x, z'
 22	'-x+y, -x, z'
 23	'-y, x-y, z'
 24	'x, y, z'
loop_
_atom_type_symbol
_atom_type_oxidation_number
Ga2+	2
S2-	-2
loop_
_atom_site_label
_atom_site_type_symbol
_atom_site_symmetry_multiplicity
_atom_site_Wyckoff_symbol
_atom_site_fract_x
_atom_site_fract_y
_atom_site_fract_z
_atom_site_occupancy
_atom_site_attached_hydrogens
Ga1 Ga2+ 4 f 0.3333 0.6667 0.17082(1) 1. 0 
S1 S2- 4 f 0.3333 0.6667 0.60191(2) 1. 0 

loop_
_atom_site_aniso_label
_atom_site_aniso_type_symbol
_atom_site_aniso_U_11
_atom_site_aniso_U_22
_atom_site_aniso_U_33
_atom_site_aniso_U_12
_atom_site_aniso_U_13
_atom_site_aniso_U_23
Ga1 Ga2+ 0.00923(1) 0.00923(1) 0.01210(4) 0.00462 0 0
S1 S2- 0.00876(4) 0.00876(4) 0.01244(7) 0.00438 0 0
#End of data_173940-ICSD


data_173941-ICSD
#©2015 by Fachinformationszentrum Karlsruhe, and the U.S. Secretary of 
#Commerce on behalf of the United States.  All rights reserved.
_database_code_ICSD                173941
_audit_creation_date               2010/02/01
_chemical_name_systematic          'Gallium(II) Sulfide - Beta'
_chemical_formula_structural       'Ga S'
_chemical_formula_sum              'Ga1 S1'
_publ_section_title                'Charge-density analysis of Ga S'
loop_
_citation_id
_citation_journal_abbrev
_citation_year
_citation_journal_volume
_citation_journal_issue
_citation_page_first
_citation_page_last
_citation_journal_id_ASTM
primary 'Physical Review, Serie 3. B - Condensed Matter (18,1978-)'
 1982 25 6 4081 4088 PRBMDO
_publ_author_name
;
Kuhn, A.;Bourdon, A.;Rigoult, J.;Rimsky, A.
;
_cell_length_a                     3.592(1)
_cell_length_b                     3.592(1)
_cell_length_c                     15.465(3)
_cell_angle_alpha                  90.
_cell_angle_beta                   90.
_cell_angle_gamma                  120.
_cell_volume                       172.8
_cell_formula_units_Z              4
_symmetry_space_group_name_H-M     'P 63/m m c'
_symmetry_Int_Tables_number        194
_refine_ls_R_factor_all            0.024
loop_
_symmetry_equiv_pos_site_id
_symmetry_equiv_pos_as_xyz
  1	'x, x-y, -z+1/2'
  2	'-x+y, y, -z+1/2'
  3	'-y, -x, -z+1/2'
  4	'-x+y, -x, -z+1/2'
  5	'-y, x-y, -z+1/2'
  6	'x, y, -z+1/2'
  7	'-x, -x+y, z+1/2'
  8	'x-y, -y, z+1/2'
  9	'y, x, z+1/2'
 10	'x-y, x, z+1/2'
 11	'y, -x+y, z+1/2'
 12	'-x, -y, z+1/2'
 13	'-x, -x+y, -z'
 14	'x-y, -y, -z'
 15	'y, x, -z'
 16	'x-y, x, -z'
 17	'y, -x+y, -z'
 18	'-x, -y, -z'
 19	'x, x-y, z'
 20	'-x+y, y, z'
 21	'-y, -x, z'
 22	'-x+y, -x, z'
 23	'-y, x-y, z'
 24	'x, y, z'
loop_
_atom_type_symbol
_atom_type_oxidation_number
Ga2+	2
S2-	-2
loop_
_atom_site_label
_atom_site_type_symbol
_atom_site_symmetry_multiplicity
_atom_site_Wyckoff_symbol
_atom_site_fract_x
_atom_site_fract_y
_atom_site_fract_z
_atom_site_occupancy
_atom_site_attached_hydrogens
Ga1 Ga2+ 4 f 0.3333 0.6667 0.17081(1) 1. 0 
S1 S2- 4 f 0.3333 0.6667 0.60190(2) 1. 0 

loop_
_atom_site_aniso_label
_atom_site_aniso_type_symbol
_atom_site_aniso_U_11
_atom_site_aniso_U_22
_atom_site_aniso_U_33
_atom_site_aniso_U_12
_atom_site_aniso_U_13
_atom_site_aniso_U_23
Ga1 Ga2+ 0.00895(3) 0.00895(3) 0.01171(4) 0.00448 0 0
S1 S2- 0.00846(5) 0.00846(5) 0.01201(7) 0.00423 0 0
#End of data_173941-ICSD


data_167394-ICSD
#©2015 by Fachinformationszentrum Karlsruhe, and the U.S. Secretary of 
#Commerce on behalf of the United States.  All rights reserved.
_database_code_ICSD                167394
_audit_creation_date               2011/02/01
_chemical_name_systematic          'Gallium Sulfide (1/1) - Beta'
_chemical_formula_structural       'Ga S'
_chemical_formula_sum              'Ga1 S1'
_publ_section_title
;
Interatomic distances in Ga Sex S1-x
;
loop_
_citation_id
_citation_journal_abbrev
_citation_year
_citation_journal_volume
_citation_page_first
_citation_page_last
_citation_journal_id_ASTM
primary 'Physica Status Solidi A - Applications and Materials'
 1976 36 181 187 PSSABA
_publ_author_name                  'Kuhn, A.;Chevy, A.;Chevalier, R.'
_cell_length_a                     3.587(3)
_cell_length_b                     3.587(3)
_cell_length_c                     15.492(7)
_cell_angle_alpha                  90.
_cell_angle_beta                   90.
_cell_angle_gamma                  120.
_cell_volume                       172.62
_cell_formula_units_Z              4
_symmetry_space_group_name_H-M     'P 63/m m c'
_symmetry_Int_Tables_number        194
loop_
_symmetry_equiv_pos_site_id
_symmetry_equiv_pos_as_xyz
  1	'x, x-y, -z+1/2'
  2	'-x+y, y, -z+1/2'
  3	'-y, -x, -z+1/2'
  4	'-x+y, -x, -z+1/2'
  5	'-y, x-y, -z+1/2'
  6	'x, y, -z+1/2'
  7	'-x, -x+y, z+1/2'
  8	'x-y, -y, z+1/2'
  9	'y, x, z+1/2'
 10	'x-y, x, z+1/2'
 11	'y, -x+y, z+1/2'
 12	'-x, -y, z+1/2'
 13	'-x, -x+y, -z'
 14	'x-y, -y, -z'
 15	'y, x, -z'
 16	'x-y, x, -z'
 17	'y, -x+y, -z'
 18	'-x, -y, -z'
 19	'x, x-y, z'
 20	'-x+y, y, z'
 21	'-y, -x, z'
 22	'-x+y, -x, z'
 23	'-y, x-y, z'
 24	'x, y, z'
loop_
_atom_type_symbol
_atom_type_oxidation_number
Ga2+	2
S2-	-2
loop_
_atom_site_label
_atom_site_type_symbol
_atom_site_symmetry_multiplicity
_atom_site_Wyckoff_symbol
_atom_site_fract_x
_atom_site_fract_y
_atom_site_fract_z
_atom_site_occupancy
_atom_site_attached_hydrogens
Ga1 Ga2+ 4 f 0.3333 0.6667 0.1710(1) 1. 0 
S1 S2- 4 f 0.3333 0.6667 0.6016(3) 1. 0 

#End of data_167394-ICSD


